Program Version,EnergyPlus, Version 8.7.0-78a111df4a, YMD=2017.05.16 10:37
1,5,Environment Title[],Latitude[deg],Longitude[deg],Time Zone[],Elevation[m]
2,6,Day of Simulation[],Month[],Day of Month[],DST Indicator[1=yes 0=no],Hour[],StartMinute[],EndMinute[],DayType
3,3,Cumulative Day of Simulation[],Month[],Day of Month[],DST Indicator[1=yes 0=no],DayType  ! When Daily Report Variables Requested
4,2,Cumulative Days of Simulation[],Month[]  ! When Monthly Report Variables Requested
5,1,Cumulative Days of Simulation[] ! When Run Period Report Variables Requested
6,9,Environment,Site Outdoor Air Drybulb Temperature [C] !Monthly [Value,Min,Day,Hour,Minute,Max,Day,Hour,Minute]
7,1,Environment,Site Outdoor Air Wetbulb Temperature [C] !TimeStep
8,1,ZONE ONE,Zone Mean Air Temperature [C] !Hourly
81,7,ZONE ONE,Zone Air Relative Humidity [%] !Daily [Value,Min,Hour,Minute,Max,Hour,Minute]
End of Data Dictionary
1,RUN PERIOD 1,  39.76,-104.86,  -7.00,1611.00
2,1, 1, 1, 0, 1, 0.00,10.00,Thursday
7,-4.917029310117454
2,1, 1, 1, 0, 1,10.00,20.00,Thursday
7,-4.430500425852936
2,1, 1, 1, 0, 1,20.00,30.00,Thursday
7,-3.9618417423323057
2,1, 1, 1, 0, 1,30.00,40.00,Thursday
7,-3.511867772900206
2,1, 1, 1, 0, 1,40.00,50.00,Thursday
7,-3.081435444297692
2,1, 1, 1, 0, 1,50.00,60.00,Thursday
7,-2.6711111354387246
2,1, 1, 1, 0, 1, 0.00,60.00,Thursday
8,3.3035249862674918
2,1, 1, 1, 0, 2, 0.00,10.00,Thursday
7,-2.6389776605306785
2,1, 1, 1, 0, 2,10.00,20.00,Thursday
7,-2.606865976772835
2,1, 1, 1, 0, 2,20.00,30.00,Thursday
7,-2.5747801044127347
2,1, 1, 1, 0, 2,30.00,40.00,Thursday
7,-2.542721356702743
2,1, 1, 1, 0, 2,40.00,50.00,Thursday
7,-2.5106871153058676
2,1, 1, 1, 0, 2,50.00,60.00,Thursday
7,-2.4786760639453417
2,1, 1, 1, 0, 2, 0.00,60.00,Thursday
8,4.084992437529497
2,1, 1, 1, 0, 3, 0.00,10.00,Thursday
7,-2.511453945523178
2,1, 1, 1, 0, 3,10.00,20.00,Thursday
7,-2.5442824912546695
2,1, 1, 1, 0, 3,20.00,30.00,Thursday
7,-2.5771500546852295
2,1, 1, 1, 0, 3,30.00,40.00,Thursday
7,-2.6100699211536435
2,1, 1, 1, 0, 3,40.00,50.00,Thursday
7,-2.6430381691796578
2,1, 1, 1, 0, 3,50.00,60.00,Thursday
7,-2.6760483349111139
2,1, 1, 1, 0, 3, 0.00,60.00,Thursday
8,3.8180493249158089
2,1, 1, 1, 0, 4, 0.00,10.00,Thursday
7,-2.676479159350059
2,1, 1, 1, 0, 4,10.00,20.00,Thursday
7,-2.676904188707712
2,1, 1, 1, 0, 4,20.00,30.00,Thursday
7,-2.677332567912901
2,1, 1, 1, 0, 4,30.00,40.00,Thursday
7,-2.677763022283479
2,1, 1, 1, 0, 4,40.00,50.00,Thursday
7,-2.6781902523292109
2,1, 1, 1, 0, 4,50.00,60.00,Thursday
7,-2.6786155776398288
2,1, 1, 1, 0, 4, 0.00,60.00,Thursday
8,3.562530907083549
2,1, 1, 1, 0, 5, 0.00,10.00,Thursday
7,-2.6790141740077915
2,1, 1, 1, 0, 5,10.00,20.00,Thursday
7,-2.679413381623976
2,1, 1, 1, 0, 5,20.00,30.00,Thursday
7,-2.6798092846488967
2,1, 1, 1, 0, 5,30.00,40.00,Thursday
7,-2.680209783877772
2,1, 1, 1, 0, 5,40.00,50.00,Thursday
7,-2.680608301980157
2,1, 1, 1, 0, 5,50.00,60.00,Thursday
7,-2.681006112378727
2,1, 1, 1, 0, 5, 0.00,60.00,Thursday
8,3.3260032415032048
2,1, 1, 1, 0, 6, 0.00,10.00,Thursday
7,-2.7906437753053345
2,1, 1, 1, 0, 6,10.00,20.00,Thursday
7,-2.900731146659416
2,1, 1, 1, 0, 6,20.00,30.00,Thursday
7,-3.0112611544682008
2,1, 1, 1, 0, 6,30.00,40.00,Thursday
7,-3.1222466187367545
2,1, 1, 1, 0, 6,40.00,50.00,Thursday
7,-3.2336831356846829
2,1, 1, 1, 0, 6,50.00,60.00,Thursday
7,-3.3455716901215499
2,1, 1, 1, 0, 6, 0.00,60.00,Thursday
8,3.1094535876828055
2,1, 1, 1, 0, 7, 0.00,10.00,Thursday
7,-2.927861474969186
2,1, 1, 1, 0, 7,10.00,20.00,Thursday
7,-2.5132034130641078
2,1, 1, 1, 0, 7,20.00,30.00,Thursday
7,-2.101591980106673
2,1, 1, 1, 0, 7,30.00,40.00,Thursday
7,-1.6930258951904856
2,1, 1, 1, 0, 7,40.00,50.00,Thursday
7,-1.2874971916036973
2,1, 1, 1, 0, 7,50.00,60.00,Thursday
7,-0.8849997028231109
2,1, 1, 1, 0, 7, 0.00,60.00,Thursday
8,3.983710141787007
2,1, 1, 1, 0, 8, 0.00,10.00,Thursday
7,-0.9505315897104714
2,1, 1, 1, 0, 8,10.00,20.00,Thursday
7,-1.0176663247422216
2,1, 1, 1, 0, 8,20.00,30.00,Thursday
7,-1.0863784330819706
2,1, 1, 1, 0, 8,30.00,40.00,Thursday
7,-1.156662907294165
2,1, 1, 1, 0, 8,40.00,50.00,Thursday
7,-1.2284937629501145
2,1, 1, 1, 0, 8,50.00,60.00,Thursday
7,-1.3018516534565739
2,1, 1, 1, 0, 8, 0.00,60.00,Thursday
8,6.879756657116627
2,1, 1, 1, 0, 9, 0.00,10.00,Thursday
7,-1.1428076825868184
2,1, 1, 1, 0, 9,10.00,20.00,Thursday
7,-0.9837722930767006
2,1, 1, 1, 0, 9,20.00,30.00,Thursday
7,-0.824738695010595
2,1, 1, 1, 0, 9,30.00,40.00,Thursday
7,-0.6657116803481414
2,1, 1, 1, 0, 9,40.00,50.00,Thursday
7,-0.5066857845831079
2,1, 1, 1, 0, 9,50.00,60.00,Thursday
7,-0.3476605606286516
2,1, 1, 1, 0, 9, 0.00,60.00,Thursday
8,7.844715176124207
2,1, 1, 1, 0,10, 0.00,10.00,Thursday
7,-0.14584144275426606
2,1, 1, 1, 0,10,10.00,20.00,Thursday
7,0.03406732891442158
2,1, 1, 1, 0,10,20.00,30.00,Thursday
7,0.19773762867109349
2,1, 1, 1, 0,10,30.00,40.00,Thursday
7,0.33430665269815026
2,1, 1, 1, 0,10,40.00,50.00,Thursday
7,0.44230815183359797
2,1, 1, 1, 0,10,50.00,60.00,Thursday
7,0.5201293249606268
2,1, 1, 1, 0,10, 0.00,60.00,Thursday
8,8.597243900379642
2,1, 1, 1, 0,11, 0.00,10.00,Thursday
7,0.5061591757652674
2,1, 1, 1, 0,11,10.00,20.00,Thursday
7,0.49109122046967215
2,1, 1, 1, 0,11,20.00,30.00,Thursday
7,0.47491513637636986
2,1, 1, 1, 0,11,30.00,40.00,Thursday
7,0.4576197303942787
2,1, 1, 1, 0,11,40.00,50.00,Thursday
7,0.43919231295427188
2,1, 1, 1, 0,11,50.00,60.00,Thursday
7,0.4196212882132942
2,1, 1, 1, 0,11, 0.00,60.00,Thursday
8,11.300775711142457
2,1, 1, 1, 0,12, 0.00,10.00,Thursday
7,0.5846079427178422
2,1, 1, 1, 0,12,10.00,20.00,Thursday
7,0.7500277627302826
2,1, 1, 1, 0,12,20.00,30.00,Thursday
7,0.9158870746402734
2,1, 1, 1, 0,12,30.00,40.00,Thursday
7,1.0821850841321415
2,1, 1, 1, 0,12,40.00,50.00,Thursday
7,1.24892058484551
2,1, 1, 1, 0,12,50.00,60.00,Thursday
7,1.416115235853656
2,1, 1, 1, 0,12, 0.00,60.00,Thursday
8,14.230203928614694
2,1, 1, 1, 0,13, 0.00,10.00,Thursday
7,1.4558128638285053
2,1, 1, 1, 0,13,10.00,20.00,Thursday
7,1.4953239786867286
2,1, 1, 1, 0,13,20.00,30.00,Thursday
7,1.5346456078835165
2,1, 1, 1, 0,13,30.00,40.00,Thursday
7,1.5737758697135338
2,1, 1, 1, 0,13,40.00,50.00,Thursday
7,1.6127166033917753
2,1, 1, 1, 0,13,50.00,60.00,Thursday
7,1.651464851608542
2,1, 1, 1, 0,13, 0.00,60.00,Thursday
8,16.508721595896735
2,1, 1, 1, 0,14, 0.00,10.00,Thursday
7,1.6935398858020332
2,1, 1, 1, 0,14,10.00,20.00,Thursday
7,1.7333330384852315
2,1, 1, 1, 0,14,20.00,30.00,Thursday
7,1.7708217167653267
2,1, 1, 1, 0,14,30.00,40.00,Thursday
7,1.8059540947826407
2,1, 1, 1, 0,14,40.00,50.00,Thursday
7,1.8387029658755223
2,1, 1, 1, 0,14,50.00,60.00,Thursday
7,1.8690371345547519
2,1, 1, 1, 0,14, 0.00,60.00,Thursday
8,18.331097007620405
2,1, 1, 1, 0,15, 0.00,10.00,Thursday
7,1.8231019986564266
2,1, 1, 1, 0,15,10.00,20.00,Thursday
7,1.7769137658674184
2,1, 1, 1, 0,15,20.00,30.00,Thursday
7,1.730478875266688
2,1, 1, 1, 0,15,30.00,40.00,Thursday
7,1.6837860826205973
2,1, 1, 1, 0,15,40.00,50.00,Thursday
7,1.6368497207741642
2,1, 1, 1, 0,15,50.00,60.00,Thursday
7,1.5896636470380512
2,1, 1, 1, 0,15, 0.00,60.00,Thursday
8,19.43925169925829
2,1, 1, 1, 0,16, 0.00,10.00,Thursday
7,1.581710038970016
2,1, 1, 1, 0,16,10.00,20.00,Thursday
7,1.5730553739893678
2,1, 1, 1, 0,16,20.00,30.00,Thursday
7,1.563706653228218
2,1, 1, 1, 0,16,30.00,40.00,Thursday
7,1.5536593440449416
2,1, 1, 1, 0,16,40.00,50.00,Thursday
7,1.5429279164666379
2,1, 1, 1, 0,16,50.00,60.00,Thursday
7,1.5315133142154745
2,1, 1, 1, 0,16, 0.00,60.00,Thursday
8,19.652717966762905
2,1, 1, 1, 0,17, 0.00,10.00,Thursday
7,1.2364455694560286
2,1, 1, 1, 0,17,10.00,20.00,Thursday
7,0.9396985975784442
2,1, 1, 1, 0,17,20.00,30.00,Thursday
7,0.6412590319743496
2,1, 1, 1, 0,17,30.00,40.00,Thursday
7,0.3411251038645571
2,1, 1, 1, 0,17,40.00,50.00,Thursday
7,0.03929622677722537
2,1, 1, 1, 0,17,50.00,60.00,Thursday
7,-0.24847006603451486
2,1, 1, 1, 0,17, 0.00,60.00,Thursday
8,18.669845278603146
2,1, 1, 1, 0,18, 0.00,10.00,Thursday
7,-0.3558114283119026
2,1, 1, 1, 0,18,10.00,20.00,Thursday
7,-0.4636620686826077
2,1, 1, 1, 0,18,20.00,30.00,Thursday
7,-0.5720180842236265
2,1, 1, 1, 0,18,30.00,40.00,Thursday
7,-0.6808806894805443
2,1, 1, 1, 0,18,40.00,50.00,Thursday
7,-0.7902460211445231
2,1, 1, 1, 0,18,50.00,60.00,Thursday
7,-0.9001169843493422
2,1, 1, 1, 0,18, 0.00,60.00,Thursday
8,17.68488475024802
2,1, 1, 1, 0,19, 0.00,10.00,Thursday
7,-1.0715912037534297
2,1, 1, 1, 0,19,10.00,20.00,Thursday
7,-1.2516302938688762
2,1, 1, 1, 0,19,20.00,30.00,Thursday
7,-1.4400298304735318
2,1, 1, 1, 0,19,30.00,40.00,Thursday
7,-1.6365891767930796
2,1, 1, 1, 0,19,40.00,50.00,Thursday
7,-1.8411126635111797
2,1, 1, 1, 0,19,50.00,60.00,Thursday
7,-2.053418817464271
2,1, 1, 1, 0,19, 0.00,60.00,Thursday
8,9.963787697942968
2,1, 1, 1, 0,20, 0.00,10.00,Thursday
7,-2.114660531586712
2,1, 1, 1, 0,20,10.00,20.00,Thursday
7,-2.176096021531992
2,1, 1, 1, 0,20,20.00,30.00,Thursday
7,-2.237722254217306
2,1, 1, 1, 0,20,30.00,40.00,Thursday
7,-2.299542039083604
2,1, 1, 1, 0,20,40.00,50.00,Thursday
7,-2.3615549124106178
2,1, 1, 1, 0,20,50.00,60.00,Thursday
7,-2.42375903582521
2,1, 1, 1, 0,20, 0.00,60.00,Thursday
8,8.116380811341643
2,1, 1, 1, 0,21, 0.00,10.00,Thursday
7,-2.5367989848233409
2,1, 1, 1, 0,21,10.00,20.00,Thursday
7,-2.649578589123479
2,1, 1, 1, 0,21,20.00,30.00,Thursday
7,-2.762104596193518
2,1, 1, 1, 0,21,30.00,40.00,Thursday
7,-2.8743782718664439
2,1, 1, 1, 0,21,40.00,50.00,Thursday
7,-2.9863891233070509
2,1, 1, 1, 0,21,50.00,60.00,Thursday
7,-3.098141712247484
2,1, 1, 1, 0,21, 0.00,60.00,Thursday
8,7.305519157061911
2,1, 1, 1, 0,22, 0.00,10.00,Thursday
7,-3.196561871563938
2,1, 1, 1, 0,22,10.00,20.00,Thursday
7,-3.2959224690534016
2,1, 1, 1, 0,22,20.00,30.00,Thursday
7,-3.3962156978208415
2,1, 1, 1, 0,22,30.00,40.00,Thursday
7,-3.4974364026598256
2,1, 1, 1, 0,22,40.00,50.00,Thursday
7,-3.5995776748797669
2,1, 1, 1, 0,22,50.00,60.00,Thursday
7,-3.702633363999759
2,1, 1, 1, 0,22, 0.00,60.00,Thursday
8,6.395239568503416
2,1, 1, 1, 0,23, 0.00,10.00,Thursday
7,-3.660918141074238
2,1, 1, 1, 0,23,10.00,20.00,Thursday
7,-3.620865098435277
2,1, 1, 1, 0,23,20.00,30.00,Thursday
7,-3.5824540602598065
2,1, 1, 1, 0,23,30.00,40.00,Thursday
7,-3.5456686204223244
2,1, 1, 1, 0,23,40.00,50.00,Thursday
7,-3.510476941956945
2,1, 1, 1, 0,23,50.00,60.00,Thursday
7,-3.476865766248813
2,1, 1, 1, 0,23, 0.00,60.00,Thursday
8,5.50074416841674
2,1, 1, 1, 0,24, 0.00,10.00,Thursday
7,-3.719632880391103
2,1, 1, 1, 0,24,10.00,20.00,Thursday
7,-3.997367046993779
2,1, 1, 1, 0,24,20.00,30.00,Thursday
7,-4.308210636255202
2,1, 1, 1, 0,24,30.00,40.00,Thursday
7,-4.650207281679924
2,1, 1, 1, 0,24,40.00,50.00,Thursday
7,-5.021566050326828
2,1, 1, 1, 0,24,50.00,60.00,Thursday
7,-5.4206560100219109
2,1, 1, 1, 0,24, 0.00,60.00,Thursday
8,3.586128552000705
3,1, 1, 1, 0,Thursday
81,28.446168840967535,11.404137436640952,16,30,46.27942630880154,24,60
2,2, 1, 2, 0, 1, 0.00,10.00,Friday
7,-5.609351991368317
2,2, 1, 2, 0, 1,10.00,20.00,Friday
7,-5.7981024846862
2,2, 1, 2, 0, 1,20.00,30.00,Friday
7,-5.986906834228819
2,2, 1, 2, 0, 1,30.00,40.00,Friday
7,-6.175766424215304
2,2, 1, 2, 0, 1,40.00,50.00,Friday
7,-6.364685658007758
2,2, 1, 2, 0, 1,50.00,60.00,Friday
7,-6.553656211182066
2,2, 1, 2, 0, 1, 0.00,60.00,Friday
8,1.5828776946567374
2,2, 1, 2, 0, 2, 0.00,10.00,Friday
7,-6.896695415570867
2,2, 1, 2, 0, 2,10.00,20.00,Friday
7,-7.2372194079940439
2,2, 1, 2, 0, 2,20.00,30.00,Friday
7,-7.575244692617762
2,2, 1, 2, 0, 2,30.00,40.00,Friday
7,-7.91077874854849
2,2, 1, 2, 0, 2,40.00,50.00,Friday
7,-8.243834215655518
2,2, 1, 2, 0, 2,50.00,60.00,Friday
7,-8.574428291994697
2,2, 1, 2, 0, 2, 0.00,60.00,Friday
8,0.24343183724714127
2,2, 1, 2, 0, 3, 0.00,10.00,Friday
7,-8.778705945154048
2,2, 1, 2, 0, 3,10.00,20.00,Friday
7,-8.985254281604166
2,2, 1, 2, 0, 3,20.00,30.00,Friday
7,-9.194023550389222
2,2, 1, 2, 0, 3,30.00,40.00,Friday
7,-9.40498301615077
2,2, 1, 2, 0, 3,40.00,50.00,Friday
7,-9.618090423499643
2,2, 1, 2, 0, 3,50.00,60.00,Friday
7,-9.833306357621339
2,2, 1, 2, 0, 3, 0.00,60.00,Friday
8,-1.2221924945293575
2,2, 1, 2, 0, 4, 0.00,10.00,Friday
7,-9.892972958093444
2,2, 1, 2, 0, 4,10.00,20.00,Friday
7,-9.952863740021991
2,2, 1, 2, 0, 4,20.00,30.00,Friday
7,-10.012971134559056
2,2, 1, 2, 0, 4,30.00,40.00,Friday
7,-10.073306133899735
2,2, 1, 2, 0, 4,40.00,50.00,Friday
7,-10.133860735478472
2,2, 1, 2, 0, 4,50.00,60.00,Friday
7,-10.194628737106616
2,2, 1, 2, 0, 4, 0.00,60.00,Friday
8,-2.356141162839943
2,2, 1, 2, 0, 5, 0.00,10.00,Friday
7,-10.384610159123204
2,2, 1, 2, 0, 5,10.00,20.00,Friday
7,-10.57465678268321
2,2, 1, 2, 0, 5,20.00,30.00,Friday
7,-10.764782816652705
2,2, 1, 2, 0, 5,30.00,40.00,Friday
7,-10.954976310771983
2,2, 1, 2, 0, 5,40.00,50.00,Friday
7,-11.145243199129722
2,2, 1, 2, 0, 5,50.00,60.00,Friday
7,-11.335589708552226
2,2, 1, 2, 0, 5, 0.00,60.00,Friday
8,-3.3751948003404839
2,2, 1, 2, 0, 6, 0.00,10.00,Friday
7,-11.532368527984789
2,2, 1, 2, 0, 6,10.00,20.00,Friday
7,-11.728671965727724
2,2, 1, 2, 0, 6,20.00,30.00,Friday
7,-11.924520291685136
2,2, 1, 2, 0, 6,30.00,40.00,Friday
7,-12.119914331061303
2,2, 1, 2, 0, 6,40.00,50.00,Friday
7,-12.314855860326562
2,2, 1, 2, 0, 6,50.00,60.00,Friday
7,-12.509352137810012
2,2, 1, 2, 0, 6, 0.00,60.00,Friday
8,-4.530753760882562
2,2, 1, 2, 0, 7, 0.00,10.00,Friday
7,-12.546453808920328
2,2, 1, 2, 0, 7,10.00,20.00,Friday
7,-12.584087098643657
2,2, 1, 2, 0, 7,20.00,30.00,Friday
7,-12.622257377738937
2,2, 1, 2, 0, 7,30.00,40.00,Friday
7,-12.660956834713579
2,2, 1, 2, 0, 7,40.00,50.00,Friday
7,-12.700170479570393
2,2, 1, 2, 0, 7,50.00,60.00,Friday
7,-12.73991093961616
2,2, 1, 2, 0, 7, 0.00,60.00,Friday
8,-5.477190047428945
2,2, 1, 2, 0, 8, 0.00,10.00,Friday
7,-12.785146608857378
2,2, 1, 2, 0, 8,10.00,20.00,Friday
7,-12.830419920302802
2,2, 1, 2, 0, 8,20.00,30.00,Friday
7,-12.87572936521573
2,2, 1, 2, 0, 8,30.00,40.00,Friday
7,-12.92107708019499
2,2, 1, 2, 0, 8,40.00,50.00,Friday
7,-12.966460487232807
2,2, 1, 2, 0, 8,50.00,60.00,Friday
7,-13.011880004520055
2,2, 1, 2, 0, 8, 0.00,60.00,Friday
8,0.8990821143820748
2,2, 1, 2, 0, 9, 0.00,10.00,Friday
7,-13.06102260313579
2,2, 1, 2, 0, 9,10.00,20.00,Friday
7,-13.11087507847964
2,2, 1, 2, 0, 9,20.00,30.00,Friday
7,-13.161438544137703
2,2, 1, 2, 0, 9,30.00,40.00,Friday
7,-13.212698533425876
2,2, 1, 2, 0, 9,40.00,50.00,Friday
7,-13.264648276266695
2,2, 1, 2, 0, 9,50.00,60.00,Friday
7,-13.317284546278083
2,2, 1, 2, 0, 9, 0.00,60.00,Friday
8,1.9741411252289479
2,2, 1, 2, 0,10, 0.00,10.00,Friday
7,-13.389640646372686
2,2, 1, 2, 0,10,10.00,20.00,Friday
7,-13.462122209677452
2,2, 1, 2, 0,10,20.00,30.00,Friday
7,-13.53472710191227
2,2, 1, 2, 0,10,30.00,40.00,Friday
7,-13.60745785373582
2,2, 1, 2, 0,10,40.00,50.00,Friday
7,-13.680313925178416
2,2, 1, 2, 0,10,50.00,60.00,Friday
7,-13.753291884944782
2,2, 1, 2, 0,10, 0.00,60.00,Friday
8,1.8459238492585888
2,2, 1, 2, 0,11, 0.00,10.00,Friday
7,-13.753380687568221
2,2, 1, 2, 0,11,10.00,20.00,Friday
7,-13.753467727221978
2,2, 1, 2, 0,11,20.00,30.00,Friday
7,-13.753554979122658
2,2, 1, 2, 0,11,30.00,40.00,Friday
7,-13.75364221074262
2,2, 1, 2, 0,11,40.00,50.00,Friday
7,-13.753729422081396
2,2, 1, 2, 0,11,50.00,60.00,Friday
7,-13.753816816436015
2,2, 1, 2, 0,11, 0.00,60.00,Friday
8,1.7143901508518047
2,2, 1, 2, 0,12, 0.00,10.00,Friday
7,-13.910668907308564
2,2, 1, 2, 0,12,10.00,20.00,Friday
7,-14.06799998554152
2,2, 1, 2, 0,12,20.00,30.00,Friday
7,-14.225797998910414
2,2, 1, 2, 0,12,30.00,40.00,Friday
7,-14.3840656202206
2,2, 1, 2, 0,12,40.00,50.00,Friday
7,-14.542788199671938
2,2, 1, 2, 0,12,50.00,60.00,Friday
7,-14.701971566482787
2,2, 1, 2, 0,12, 0.00,60.00,Friday
8,1.5078061884294172
2,2, 1, 2, 0,13, 0.00,10.00,Friday
7,-14.843878134826486
2,2, 1, 2, 0,13,10.00,20.00,Friday
7,-14.986713461159324
2,2, 1, 2, 0,13,20.00,30.00,Friday
7,-15.130462700105707
2,2, 1, 2, 0,13,30.00,40.00,Friday
7,-15.27511562098586
2,2, 1, 2, 0,13,40.00,50.00,Friday
7,-15.420656959756748
2,2, 1, 2, 0,13,50.00,60.00,Friday
7,-15.567073478269267
2,2, 1, 2, 0,13, 0.00,60.00,Friday
8,1.198972796875359
2,2, 1, 2, 0,14, 0.00,10.00,Friday
7,-15.567011339048938
2,2, 1, 2, 0,14,10.00,20.00,Friday
7,-15.566948455127652
2,2, 1, 2, 0,14,20.00,30.00,Friday
7,-15.566884770635266
2,2, 1, 2, 0,14,30.00,40.00,Friday
7,-15.566822870957925
2,2, 1, 2, 0,14,40.00,50.00,Friday
7,-15.566759312629144
2,2, 1, 2, 0,14,50.00,60.00,Friday
7,-15.566695845278268
2,2, 1, 2, 0,14, 0.00,60.00,Friday
8,0.9087362629580126
2,2, 1, 2, 0,15, 0.00,10.00,Friday
7,-15.612049770282003
2,2, 1, 2, 0,15,10.00,20.00,Friday
7,-15.657427952682966
2,2, 1, 2, 0,15,20.00,30.00,Friday
7,-15.70283304384027
2,2, 1, 2, 0,15,30.00,40.00,Friday
7,-15.748264984248753
2,2, 1, 2, 0,15,40.00,50.00,Friday
7,-15.793721897290052
2,2, 1, 2, 0,15,50.00,60.00,Friday
7,-15.839205548496626
2,2, 1, 2, 0,15, 0.00,60.00,Friday
8,0.639922515489578
2,2, 1, 2, 0,16, 0.00,10.00,Friday
7,-15.998802187720165
2,2, 1, 2, 0,16,10.00,20.00,Friday
7,-16.158859310666125
2,2, 1, 2, 0,16,20.00,30.00,Friday
7,-16.319362329561398
2,2, 1, 2, 0,16,30.00,40.00,Friday
7,-16.480309007966519
2,2, 1, 2, 0,16,40.00,50.00,Friday
7,-16.64169165455434
2,2, 1, 2, 0,16,50.00,60.00,Friday
7,-16.80349838888861
2,2, 1, 2, 0,16, 0.00,60.00,Friday
8,0.2862857807978416
2,2, 1, 2, 0,17, 0.00,10.00,Friday
7,-16.965825947721336
2,2, 1, 2, 0,17,10.00,20.00,Friday
7,-17.128569679993736
2,2, 1, 2, 0,17,20.00,30.00,Friday
7,-17.29172161458495
2,2, 1, 2, 0,17,30.00,40.00,Friday
7,-17.455279245411654
2,2, 1, 2, 0,17,40.00,50.00,Friday
7,-17.619235472488286
2,2, 1, 2, 0,17,50.00,60.00,Friday
7,-17.783585724360429
2,2, 1, 2, 0,17, 0.00,60.00,Friday
8,-0.1728647457311309
2,2, 1, 2, 0,18, 0.00,10.00,Friday
7,-17.86170313147015
2,2, 1, 2, 0,18,10.00,20.00,Friday
7,-17.940135311344894
2,2, 1, 2, 0,18,20.00,30.00,Friday
7,-18.01887018327564
2,2, 1, 2, 0,18,30.00,40.00,Friday
7,-18.097892169083118
2,2, 1, 2, 0,18,40.00,50.00,Friday
7,-18.1772210831997
2,2, 1, 2, 0,18,50.00,60.00,Friday
7,-18.256831080807836
2,2, 1, 2, 0,18, 0.00,60.00,Friday
8,-0.6239686424072551
2,2, 1, 2, 0,19, 0.00,10.00,Friday
7,-18.3065894821159
2,2, 1, 2, 0,19,10.00,20.00,Friday
7,-18.356366522060815
2,2, 1, 2, 0,19,20.00,30.00,Friday
7,-18.406161443096957
2,2, 1, 2, 0,19,30.00,40.00,Friday
7,-18.455977149169539
2,2, 1, 2, 0,19,40.00,50.00,Friday
7,-18.50581187054793
2,2, 1, 2, 0,19,50.00,60.00,Friday
7,-18.55566416539227
2,2, 1, 2, 0,19, 0.00,60.00,Friday
8,-10.09784682748454
2,2, 1, 2, 0,20, 0.00,10.00,Friday
7,-18.61088793971095
2,2, 1, 2, 0,20,10.00,20.00,Friday
7,-18.666437367661403
2,2, 1, 2, 0,20,20.00,30.00,Friday
7,-18.72232206560789
2,2, 1, 2, 0,20,30.00,40.00,Friday
7,-18.77855283157142
2,2, 1, 2, 0,20,40.00,50.00,Friday
7,-18.83510149323635
2,2, 1, 2, 0,20,50.00,60.00,Friday
7,-18.891977307654068
2,2, 1, 2, 0,20, 0.00,60.00,Friday
8,-11.374404126906926
2,2, 1, 2, 0,21, 0.00,10.00,Friday
7,-18.927171937599945
2,2, 1, 2, 0,21,10.00,20.00,Friday
7,-18.962385929914164
2,2, 1, 2, 0,21,20.00,30.00,Friday
7,-18.997621237849509
2,2, 1, 2, 0,21,30.00,40.00,Friday
7,-19.03287685266039
2,2, 1, 2, 0,21,40.00,50.00,Friday
7,-19.068151923878319
2,2, 1, 2, 0,21,50.00,60.00,Friday
7,-19.103448407966398
2,2, 1, 2, 0,21, 0.00,60.00,Friday
8,-12.055573926403334
2,2, 1, 2, 0,22, 0.00,10.00,Friday
7,-19.162086995739619
2,2, 1, 2, 0,22,10.00,20.00,Friday
7,-19.22134258068915
2,2, 1, 2, 0,22,20.00,30.00,Friday
7,-19.28119749081274
2,2, 1, 2, 0,22,30.00,40.00,Friday
7,-19.341669663416029
2,2, 1, 2, 0,22,40.00,50.00,Friday
7,-19.402727183617988
2,2, 1, 2, 0,22,50.00,60.00,Friday
7,-19.46438979088797
2,2, 1, 2, 0,22, 0.00,60.00,Friday
8,-12.717339807457913
2,2, 1, 2, 0,23, 0.00,10.00,Friday
7,-19.54400136921692
2,2, 1, 2, 0,23,10.00,20.00,Friday
7,-19.62364550213357
2,2, 1, 2, 0,23,20.00,30.00,Friday
7,-19.70329309786803
2,2, 1, 2, 0,23,30.00,40.00,Friday
7,-19.78295977408435
2,2, 1, 2, 0,23,40.00,50.00,Friday
7,-19.862657761815624
2,2, 1, 2, 0,23,50.00,60.00,Friday
7,-19.94235964298781
2,2, 1, 2, 0,23, 0.00,60.00,Friday
8,-13.472055964181055
2,2, 1, 2, 0,24, 0.00,10.00,Friday
7,-19.850927848107795
2,2, 1, 2, 0,24,10.00,20.00,Friday
7,-19.75934383606274
2,2, 1, 2, 0,24,20.00,30.00,Friday
7,-19.66763051296281
2,2, 1, 2, 0,24,30.00,40.00,Friday
7,-19.575775615028058
2,2, 1, 2, 0,24,40.00,50.00,Friday
7,-19.483762959565977
2,2, 1, 2, 0,24,50.00,60.00,Friday
7,-19.39161981566326
2,2, 1, 2, 0,24, 0.00,60.00,Friday
8,-13.864533858883514
3,2, 1, 2, 0,Friday
81,31.811154508351494,18.393947603737748,18,60,46.586189132634107, 1,10
2,3, 1, 3, 0, 1, 0.00,10.00,Saturday
7,-19.474733089770959
2,3, 1, 3, 0, 1,10.00,20.00,Saturday
7,-19.55783421701259
2,3, 1, 3, 0, 1,20.00,30.00,Saturday
7,-19.640900027691996
2,3, 1, 3, 0, 1,30.00,40.00,Saturday
7,-19.723940659632686
2,3, 1, 3, 0, 1,40.00,50.00,Saturday
7,-19.8069720881875
2,3, 1, 3, 0, 1,50.00,60.00,Saturday
7,-19.88996775906648
2,3, 1, 3, 0, 1, 0.00,60.00,Saturday
8,-14.261497940413259
2,3, 1, 3, 0, 2, 0.00,10.00,Saturday
7,-19.818788766653666
2,3, 1, 3, 0, 2,10.00,20.00,Saturday
7,-19.74773439359252
2,3, 1, 3, 0, 2,20.00,30.00,Saturday
7,-19.676832825467199
2,3, 1, 3, 0, 2,30.00,40.00,Saturday
7,-19.606070627781567
2,3, 1, 3, 0, 2,40.00,50.00,Saturday
7,-19.535436781004479
2,3, 1, 3, 0, 2,50.00,60.00,Saturday
7,-19.464957898150194
2,3, 1, 3, 0, 2, 0.00,60.00,Saturday
8,-14.580016134774482
2,3, 1, 3, 0, 3, 0.00,10.00,Saturday
7,-19.47716469949083
2,3, 1, 3, 0, 3,10.00,20.00,Saturday
7,-19.4893742384952
2,3, 1, 3, 0, 3,20.00,30.00,Saturday
7,-19.50158520493571
2,3, 1, 3, 0, 3,30.00,40.00,Saturday
7,-19.51379990436225
2,3, 1, 3, 0, 3,40.00,50.00,Saturday
7,-19.526015343568429
2,3, 1, 3, 0, 3,50.00,60.00,Saturday
7,-19.538234202362337
2,3, 1, 3, 0, 3, 0.00,60.00,Saturday
8,-14.753543386616757
2,3, 1, 3, 0, 4, 0.00,10.00,Saturday
7,-19.605219509947845
2,3, 1, 3, 0, 4,10.00,20.00,Saturday
7,-19.672402134184755
2,3, 1, 3, 0, 4,20.00,30.00,Saturday
7,-19.73975367890758
2,3, 1, 3, 0, 4,30.00,40.00,Saturday
7,-19.807288245430475
2,3, 1, 3, 0, 4,40.00,50.00,Saturday
7,-19.87501704452961
2,3, 1, 3, 0, 4,50.00,60.00,Saturday
7,-19.94290997718182
2,3, 1, 3, 0, 4, 0.00,60.00,Saturday
8,-15.191990093684746
2,3, 1, 3, 0, 5, 0.00,10.00,Saturday
7,-20.041512512152577
2,3, 1, 3, 0, 5,10.00,20.00,Saturday
7,-20.140082277533577
2,3, 1, 3, 0, 5,20.00,30.00,Saturday
7,-20.2386428623173
2,3, 1, 3, 0, 5,30.00,40.00,Saturday
7,-20.337171804719128
2,3, 1, 3, 0, 5,40.00,50.00,Saturday
7,-20.43569453173046
2,3, 1, 3, 0, 5,50.00,60.00,Saturday
7,-20.53419614190698
2,3, 1, 3, 0, 5, 0.00,60.00,Saturday
8,-15.79417671798676
2,3, 1, 3, 0, 6, 0.00,10.00,Saturday
7,-20.649194421397703
2,3, 1, 3, 0, 6,10.00,20.00,Saturday
7,-20.763914654684667
2,3, 1, 3, 0, 6,20.00,30.00,Saturday
7,-20.878336981201327
2,3, 1, 3, 0, 6,30.00,40.00,Saturday
7,-20.99248992507919
2,3, 1, 3, 0, 6,40.00,50.00,Saturday
7,-21.10636136484096
2,3, 1, 3, 0, 6,50.00,60.00,Saturday
7,-21.21994179150782
2,3, 1, 3, 0, 6, 0.00,60.00,Saturday
8,-16.42667140533609
2,3, 1, 3, 0, 7, 0.00,10.00,Saturday
7,-21.19064144211932
2,3, 1, 3, 0, 7,10.00,20.00,Saturday
7,-21.16135637431304
2,3, 1, 3, 0, 7,20.00,30.00,Saturday
7,-21.1320870929712
2,3, 1, 3, 0, 7,30.00,40.00,Saturday
7,-21.10283358180587
2,3, 1, 3, 0, 7,40.00,50.00,Saturday
7,-21.07359493983112
2,3, 1, 3, 0, 7,50.00,60.00,Saturday
7,-21.044372533801977
2,3, 1, 3, 0, 7, 0.00,60.00,Saturday
8,-16.863484077458819
2,3, 1, 3, 0, 8, 0.00,10.00,Saturday
7,-21.07349063412002
2,3, 1, 3, 0, 8,10.00,20.00,Saturday
7,-21.102610051841649
2,3, 1, 3, 0, 8,20.00,30.00,Saturday
7,-21.131730747207017
2,3, 1, 3, 0, 8,30.00,40.00,Saturday
7,-21.160855898996787
2,3, 1, 3, 0, 8,40.00,50.00,Saturday
7,-21.189982242496578
2,3, 1, 3, 0, 8,50.00,60.00,Saturday
7,-21.219111207782214
2,3, 1, 3, 0, 8, 0.00,60.00,Saturday
8,-12.867562182506355
2,3, 1, 3, 0, 9, 0.00,10.00,Saturday
7,-21.219037325486306
2,3, 1, 3, 0, 9,10.00,20.00,Saturday
7,-21.218962485333749
2,3, 1, 3, 0, 9,20.00,30.00,Saturday
7,-21.2188875739242
2,3, 1, 3, 0, 9,30.00,40.00,Saturday
7,-21.218814003834959
2,3, 1, 3, 0, 9,40.00,50.00,Saturday
7,-21.2187392240938
2,3, 1, 3, 0, 9,50.00,60.00,Saturday
7,-21.21866448850174
2,3, 1, 3, 0, 9, 0.00,60.00,Saturday
8,-11.49416172129074
2,3, 1, 3, 0,10, 0.00,10.00,Saturday
7,-21.308240410807455
2,3, 1, 3, 0,10,10.00,20.00,Saturday
7,-21.39770485728008
2,3, 1, 3, 0,10,20.00,30.00,Saturday
7,-21.487034111204996
2,3, 1, 3, 0,10,30.00,40.00,Saturday
7,-21.576242819589245
2,3, 1, 3, 0,10,40.00,50.00,Saturday
7,-21.66534425358386
2,3, 1, 3, 0,10,50.00,60.00,Saturday
7,-21.754313019386595
2,3, 1, 3, 0,10, 0.00,60.00,Saturday
8,-11.363329409865456
2,3, 1, 3, 0,11, 0.00,10.00,Saturday
7,-21.90011507640323
2,3, 1, 3, 0,11,10.00,20.00,Saturday
7,-22.046892388817846
2,3, 1, 3, 0,11,20.00,30.00,Saturday
7,-22.194626653392456
2,3, 1, 3, 0,11,30.00,40.00,Saturday
7,-22.3433027201543
2,3, 1, 3, 0,11,40.00,50.00,Saturday
7,-22.492902812963789
2,3, 1, 3, 0,11,50.00,60.00,Saturday
7,-22.64340822524068
2,3, 1, 3, 0,11, 0.00,60.00,Saturday
8,-11.101550190320273
2,3, 1, 3, 0,12, 0.00,10.00,Saturday
7,-22.32908542411283
2,3, 1, 3, 0,12,10.00,20.00,Saturday
7,-22.01756162430651
2,3, 1, 3, 0,12,20.00,30.00,Saturday
7,-21.708937517482828
2,3, 1, 3, 0,12,30.00,40.00,Saturday
7,-21.40331835527449
2,3, 1, 3, 0,12,40.00,50.00,Saturday
7,-21.100808695651098
2,3, 1, 3, 0,12,50.00,60.00,Saturday
7,-20.801528786510354
2,3, 1, 3, 0,12, 0.00,60.00,Saturday
8,-8.215932097129942
2,3, 1, 3, 0,13, 0.00,10.00,Saturday
7,-20.630411019238644
2,3, 1, 3, 0,13,10.00,20.00,Saturday
7,-20.459435392809437
2,3, 1, 3, 0,13,20.00,30.00,Saturday
7,-20.288603194573704
2,3, 1, 3, 0,13,30.00,40.00,Saturday
7,-20.117915538336019
2,3, 1, 3, 0,13,40.00,50.00,Saturday
7,-19.947372083308009
2,3, 1, 3, 0,13,50.00,60.00,Saturday
7,-19.776973987119637
2,3, 1, 3, 0,13, 0.00,60.00,Saturday
8,-5.3316633131571848
2,3, 1, 3, 0,14, 0.00,10.00,Saturday
7,-19.807708795337836
2,3, 1, 3, 0,14,10.00,20.00,Saturday
7,-19.83846257909397
2,3, 1, 3, 0,14,20.00,30.00,Saturday
7,-19.869234061168684
2,3, 1, 3, 0,14,30.00,40.00,Saturday
7,-19.900025991810844
2,3, 1, 3, 0,14,40.00,50.00,Saturday
7,-19.930836784838378
2,3, 1, 3, 0,14,50.00,60.00,Saturday
7,-19.961665273169137
2,3, 1, 3, 0,14, 0.00,60.00,Saturday
8,-4.342080039404833
2,3, 1, 3, 0,15, 0.00,10.00,Saturday
7,-20.001158351617144
2,3, 1, 3, 0,15,10.00,20.00,Saturday
7,-20.04122377546476
2,3, 1, 3, 0,15,20.00,30.00,Saturday
7,-20.081832064140487
2,3, 1, 3, 0,15,30.00,40.00,Saturday
7,-20.122992014651943
2,3, 1, 3, 0,15,40.00,50.00,Saturday
7,-20.164708457646964
2,3, 1, 3, 0,15,50.00,60.00,Saturday
7,-20.206952829840078
2,3, 1, 3, 0,15, 0.00,60.00,Saturday
8,-3.8997514581070038
2,3, 1, 3, 0,16, 0.00,10.00,Saturday
7,-20.362071268244795
2,3, 1, 3, 0,16,10.00,20.00,Saturday
7,-20.518409976897457
2,3, 1, 3, 0,16,20.00,30.00,Saturday
7,-20.675958990121349
2,3, 1, 3, 0,16,30.00,40.00,Saturday
7,-20.834669347926665
2,3, 1, 3, 0,16,40.00,50.00,Saturday
7,-20.994531359329629
2,3, 1, 3, 0,16,50.00,60.00,Saturday
7,-21.15552355468961
2,3, 1, 3, 0,16, 0.00,60.00,Saturday
8,-3.7066404954022298
2,3, 1, 3, 0,17, 0.00,10.00,Saturday
7,-21.17408989916468
2,3, 1, 3, 0,17,10.00,20.00,Saturday
7,-21.192659650670107
2,3, 1, 3, 0,17,20.00,30.00,Saturday
7,-21.211232232445846
2,3, 1, 3, 0,17,30.00,40.00,Saturday
7,-21.22980807141181
2,3, 1, 3, 0,17,40.00,50.00,Saturday
7,-21.248387183651088
2,3, 1, 3, 0,17,50.00,60.00,Saturday
7,-21.26696922281334
2,3, 1, 3, 0,17, 0.00,60.00,Saturday
8,-4.633971474817584
2,3, 1, 3, 0,18, 0.00,10.00,Saturday
7,-21.337733752567674
2,3, 1, 3, 0,18,10.00,20.00,Saturday
7,-21.408647823015224
2,3, 1, 3, 0,18,20.00,30.00,Saturday
7,-21.479684890041228
2,3, 1, 3, 0,18,30.00,40.00,Saturday
7,-21.55085866735748
2,3, 1, 3, 0,18,40.00,50.00,Saturday
7,-21.62217852601005
2,3, 1, 3, 0,18,50.00,60.00,Saturday
7,-21.693618275729773
2,3, 1, 3, 0,18, 0.00,60.00,Saturday
8,-5.546798124990434
2,3, 1, 3, 0,19, 0.00,10.00,Saturday
7,-21.778539168279193
2,3, 1, 3, 0,19,10.00,20.00,Saturday
7,-21.863651862954009
2,3, 1, 3, 0,19,20.00,30.00,Saturday
7,-21.948981510550234
2,3, 1, 3, 0,19,30.00,40.00,Saturday
7,-22.0345118851852
2,3, 1, 3, 0,19,40.00,50.00,Saturday
7,-22.120227942622316
2,3, 1, 3, 0,19,50.00,60.00,Saturday
7,-22.206155429311236
2,3, 1, 3, 0,19, 0.00,60.00,Saturday
8,-14.626194654756509
2,3, 1, 3, 0,20, 0.00,10.00,Saturday
7,-22.206155429311236
2,3, 1, 3, 0,20,10.00,20.00,Saturday
7,-22.206155429311236
2,3, 1, 3, 0,20,20.00,30.00,Saturday
7,-22.206155429311236
2,3, 1, 3, 0,20,30.00,40.00,Saturday
7,-22.206155429311236
2,3, 1, 3, 0,20,40.00,50.00,Saturday
7,-22.206155429311236
2,3, 1, 3, 0,20,50.00,60.00,Saturday
7,-22.206155429311236
2,3, 1, 3, 0,20, 0.00,60.00,Saturday
8,-15.832092187617415
2,3, 1, 3, 0,21, 0.00,10.00,Saturday
7,-22.05531223132342
2,3, 1, 3, 0,21,10.00,20.00,Saturday
7,-21.90534546391202
2,3, 1, 3, 0,21,20.00,30.00,Saturday
7,-21.75627072616262
2,3, 1, 3, 0,21,30.00,40.00,Saturday
7,-21.608104955172096
2,3, 1, 3, 0,21,40.00,50.00,Saturday
7,-21.460864812593905
2,3, 1, 3, 0,21,50.00,60.00,Saturday
7,-21.314565636521239
2,3, 1, 3, 0,21, 0.00,60.00,Saturday
8,-15.98559060210789
2,3, 1, 3, 0,22, 0.00,10.00,Saturday
7,-21.306548426612627
2,3, 1, 3, 0,22,10.00,20.00,Saturday
7,-21.298532807376785
2,3, 1, 3, 0,22,20.00,30.00,Saturday
7,-21.290518983383355
2,3, 1, 3, 0,22,30.00,40.00,Saturday
7,-21.282507047809284
2,3, 1, 3, 0,22,40.00,50.00,Saturday
7,-21.274496587607869
2,3, 1, 3, 0,22,50.00,60.00,Saturday
7,-21.26648790024641
2,3, 1, 3, 0,22, 0.00,60.00,Saturday
8,-16.075790236644953
2,3, 1, 3, 0,23, 0.00,10.00,Saturday
7,-21.247842339854036
2,3, 1, 3, 0,23,10.00,20.00,Saturday
7,-21.229202858792154
2,3, 1, 3, 0,23,20.00,30.00,Saturday
7,-21.210571500038364
2,3, 1, 3, 0,23,30.00,40.00,Saturday
7,-21.1919485359536
2,3, 1, 3, 0,23,40.00,50.00,Saturday
7,-21.17333196342334
2,3, 1, 3, 0,23,50.00,60.00,Saturday
7,-21.154723079111588
2,3, 1, 3, 0,23, 0.00,60.00,Saturday
8,-16.406339694206044
2,3, 1, 3, 0,24, 0.00,10.00,Saturday
7,-21.43777730311309
2,3, 1, 3, 0,24,10.00,20.00,Saturday
7,-21.719797671612917