Program Version,EnergyPlus, Version 9.5.0-de239b2e5f, YMD=2021.04.08 18:46
1,5,Environment Title[],Latitude[deg],Longitude[deg],Time Zone[],Elevation[m]
2,8,Day of Simulation[],Month[],Day of Month[],DST Indicator[1=yes 0=no],Hour[],StartMinute[],EndMinute[],DayType
3,5,Cumulative Day of Simulation[],Month[],Day of Month[],DST Indicator[1=yes 0=no],DayType  ! When Daily Report Variables Requested
4,2,Cumulative Days of Simulation[],Month[]  ! When Monthly Report Variables Requested
5,1,Cumulative Days of Simulation[] ! When Run Period Report Variables Requested
6,1,Calendar Year of Simulation[] ! When Annual Report Variables Requested
7,1,ZONE ONE,Zone Mean Air Temperature [C] !Hourly
8,1,ZONE ONE,Zone Air System Sensible Heating Energy [J] !Hourly
81,1,ZONE ONE,Zone Air System Sensible Cooling Energy [J] !Hourly
168,1,DistrictCooling:Facility [J] !TimeStep
119,1,DistrictHeating:Facility [J] !TimeStep
End of Data Dictionary
1,RUN PERIOD 1,  39.76,-104.86,  -7.00,1611.00
2,1, 1, 1, 0, 1, 0.00,15.00,Thursday
119,921384.5909999742
168,3.069544618483633e-10
2,1, 1, 1, 0, 1,15.00,30.00,Thursday
119,941543.0956220531
168,6.139089236967266e-10
2,1, 1, 1, 0, 1,30.00,45.00,Thursday
119,947740.3292258672
168,6.139089236967266e-10
2,1, 1, 1, 0, 1,45.00,60.00,Thursday
119,941459.8342892313
168,6.139089236967266e-10
2,1, 1, 1, 0, 1, 0.00,60.00,Thursday
7,20.0
8,3752127.8501371259
81,0.0
2,1, 1, 1, 0, 2, 0.00,15.00,Thursday
119,926983.529795472
168,6.139089236967266e-10
2,1, 1, 1, 0, 2,15.00,30.00,Thursday
119,910853.7861527396
168,3.069544618483633e-10
2,1, 1, 1, 0, 2,30.00,45.00,Thursday
119,896703.1895674954
168,4.092726157978177e-10
2,1, 1, 1, 0, 2,45.00,60.00,Thursday
119,885415.342985488
168,5.115907697472721e-10
2,1, 1, 1, 0, 2, 0.00,60.00,Thursday
7,20.0
8,3619955.8485011949
81,0.0
2,1, 1, 1, 0, 3, 0.00,15.00,Thursday
119,876910.2743890234
168,4.092726157978177e-10
2,1, 1, 1, 0, 3,15.00,30.00,Thursday
119,870592.1016747136
168,3.069544618483633e-10
2,1, 1, 1, 0, 3,30.00,45.00,Thursday
119,865951.0660941049
168,4.092726157978177e-10
2,1, 1, 1, 0, 3,45.00,60.00,Thursday
119,862623.5980886259
168,4.092726157978177e-10
2,1, 1, 1, 0, 3, 0.00,60.00,Thursday
7,20.0
8,3476077.040246468
81,0.0
2,1, 1, 1, 0, 4, 0.00,15.00,Thursday
119,860424.8851289749
168,3.069544618483633e-10
2,1, 1, 1, 0, 4,15.00,30.00,Thursday
119,858943.1322475881
168,4.092726157978177e-10
2,1, 1, 1, 0, 4,30.00,45.00,Thursday
119,857931.6722048224
168,5.115907697472721e-10
2,1, 1, 1, 0, 4,45.00,60.00,Thursday
119,857264.8260101563
168,5.115907697472721e-10
2,1, 1, 1, 0, 4, 0.00,60.00,Thursday
7,20.0
8,3434564.5155915415
81,0.0
2,1, 1, 1, 0, 5, 0.00,15.00,Thursday
119,856889.2164680983
168,5.115907697472721e-10
2,1, 1, 1, 0, 5,15.00,30.00,Thursday
119,856571.4897678265
168,4.092726157978177e-10
2,1, 1, 1, 0, 5,30.00,45.00,Thursday
119,856375.2369312696
168,5.115907697472721e-10
2,1, 1, 1, 0, 5,45.00,60.00,Thursday
119,856279.397149977
168,6.139089236967266e-10
2,1, 1, 1, 0, 5, 0.00,60.00,Thursday
7,20.0
8,3426115.340317171
81,0.0
2,1, 1, 1, 0, 6, 0.00,15.00,Thursday
119,856249.3326070868
168,5.115907697472721e-10
2,1, 1, 1, 0, 6,15.00,30.00,Thursday
119,856264.8032627695
168,5.115907697472721e-10
2,1, 1, 1, 0, 6,30.00,45.00,Thursday
119,856313.2089448283
168,6.139089236967266e-10
2,1, 1, 1, 0, 6,45.00,60.00,Thursday
119,856404.5000537688
168,8.185452315956354e-10
2,1, 1, 1, 0, 6, 0.00,60.00,Thursday
7,20.0
8,3425231.8448684539
81,0.0
2,1, 1, 1, 0, 7, 0.00,15.00,Thursday
119,855386.8873672399
168,9.208633855450898e-10
2,1, 1, 1, 0, 7,15.00,30.00,Thursday
119,849778.441511365
168,1.0231815394945443e-9
2,1, 1, 1, 0, 7,30.00,45.00,Thursday
119,838160.8716259904
168,6.139089236967266e-10
2,1, 1, 1, 0, 7,45.00,60.00,Thursday
119,821278.494094017
168,6.139089236967266e-10
2,1, 1, 1, 0, 7, 0.00,60.00,Thursday
7,20.0
8,3364604.6945986126
81,0.0
2,1, 1, 1, 0, 8, 0.00,15.00,Thursday
119,801748.8951725343
168,3.069544618483633e-10
2,1, 1, 1, 0, 8,15.00,30.00,Thursday
119,784531.5380552311
168,4.092726157978177e-10
2,1, 1, 1, 0, 8,30.00,45.00,Thursday
119,771817.8981815168
168,4.092726157978177e-10
2,1, 1, 1, 0, 8,45.00,60.00,Thursday
119,763316.1430808696
168,4.092726157978177e-10
2,1, 1, 1, 0, 8, 0.00,60.00,Thursday
7,20.0
8,3121414.4744901519
81,0.0
2,1, 1, 1, 0, 9, 0.00,15.00,Thursday
119,757190.3920548008
168,4.092726157978177e-10
2,1, 1, 1, 0, 9,15.00,30.00,Thursday
119,750590.9660088566
168,4.092726157978177e-10
2,1, 1, 1, 0, 9,30.00,45.00,Thursday
119,742085.7318087537
168,4.092726157978177e-10
2,1, 1, 1, 0, 9,45.00,60.00,Thursday
119,732106.0057234012
168,4.092726157978177e-10
2,1, 1, 1, 0, 9, 0.00,60.00,Thursday
7,20.0
8,2981973.095595812
81,0.0
2,1, 1, 1, 0,10, 0.00,15.00,Thursday
119,720743.8342267587
168,3.069544618483633e-10
2,1, 1, 1, 0,10,15.00,30.00,Thursday
119,706652.1118861558
168,3.069544618483633e-10
2,1, 1, 1, 0,10,30.00,45.00,Thursday
119,687972.8477682022
168,4.092726157978177e-10
2,1, 1, 1, 0,10,45.00,60.00,Thursday
119,662905.8513124085
168,5.115907697472721e-10
2,1, 1, 1, 0,10, 0.00,60.00,Thursday
7,20.0
8,2778274.6451935258
81,0.0
2,1, 1, 1, 0,11, 0.00,15.00,Thursday
119,632920.617956368
168,2.0463630789890886e-10
2,1, 1, 1, 0,11,15.00,30.00,Thursday
119,602897.7923894725
168,3.069544618483633e-10
2,1, 1, 1, 0,11,30.00,45.00,Thursday
119,575666.7364355413
168,3.069544618483633e-10
2,1, 1, 1, 0,11,45.00,60.00,Thursday
119,552325.1052845559
168,3.069544618483633e-10
2,1, 1, 1, 0,11, 0.00,60.00,Thursday
7,20.0
8,2363810.252065938
81,0.0
2,1, 1, 1, 0,12, 0.00,15.00,Thursday
119,532550.3317215325
168,3.069544618483633e-10
2,1, 1, 1, 0,12,15.00,30.00,Thursday
119,514949.5905736985
168,2.0463630789890886e-10
2,1, 1, 1, 0,12,30.00,45.00,Thursday
119,498727.71014696868
168,3.069544618483633e-10
2,1, 1, 1, 0,12,45.00,60.00,Thursday
119,483728.11743488456
168,3.069544618483633e-10
2,1, 1, 1, 0,12, 0.00,60.00,Thursday
7,20.0
8,2029955.749877084
81,0.0
2,1, 1, 1, 0,13, 0.00,15.00,Thursday
119,469958.6704129061
168,2.0463630789890886e-10
2,1, 1, 1, 0,13,15.00,30.00,Thursday
119,457628.95451004846
168,1.0231815394945443e-10
2,1, 1, 1, 0,13,30.00,45.00,Thursday
119,446715.57215432266
168,5.1159076974727216e-11
2,1, 1, 1, 0,13,45.00,60.00,Thursday
119,437041.810196067
168,2.5579538487363609e-10
2,1, 1, 1, 0,13, 0.00,60.00,Thursday
7,20.0
8,1811345.0072733444
81,0.0
2,1, 1, 1, 0,14, 0.00,15.00,Thursday
119,428181.265495761
168,4.092726157978177e-10
2,1, 1, 1, 0,14,15.00,30.00,Thursday
119,419317.5407642822
168,5.115907697472721e-10
2,1, 1, 1, 0,14,30.00,45.00,Thursday
119,410117.39803101538
168,4.092726157978177e-10
2,1, 1, 1, 0,14,45.00,60.00,Thursday
119,400700.5540617229
168,3.069544618483633e-10
2,1, 1, 1, 0,14, 0.00,60.00,Thursday
7,20.0
8,1658316.7583527812
81,0.0
2,1, 1, 1, 0,15, 0.00,15.00,Thursday
119,391626.8723222711
168,3.069544618483633e-10
2,1, 1, 1, 0,15,15.00,30.00,Thursday
119,384110.48167113869
168,4.092726157978177e-10
2,1, 1, 1, 0,15,30.00,45.00,Thursday
119,378516.0432424173
168,3.069544618483633e-10
2,1, 1, 1, 0,15,45.00,60.00,Thursday
119,374491.09028645089
168,4.092726157978177e-10
2,1, 1, 1, 0,15, 0.00,60.00,Thursday
7,20.0
8,1528744.487522278
81,0.0
2,1, 1, 1, 0,16, 0.00,15.00,Thursday
119,372207.3653171823
168,4.604316927725449e-10
2,1, 1, 1, 0,16,15.00,30.00,Thursday
119,373031.0538341548
168,4.604316927725449e-10
2,1, 1, 1, 0,16,30.00,45.00,Thursday
119,377376.84370075937
168,3.069544618483633e-10
2,1, 1, 1, 0,16,45.00,60.00,Thursday
119,385091.03062008236
168,2.5579538487363609e-10
2,1, 1, 1, 0,16, 0.00,60.00,Thursday
7,20.0
8,1507706.2934721786
81,0.0
2,1, 1, 1, 0,17, 0.00,15.00,Thursday
119,395989.09850776087
168,2.5579538487363609e-10
2,1, 1, 1, 0,17,15.00,30.00,Thursday
119,410381.8278440805
168,4.092726157978177e-10
2,1, 1, 1, 0,17,30.00,45.00,Thursday
119,428800.422823497
168,5.115907697472721e-10
2,1, 1, 1, 0,17,45.00,60.00,Thursday
119,450655.2715461534
168,6.650680006714538e-10
2,1, 1, 1, 0,17, 0.00,60.00,Thursday
7,20.0
8,1685826.6207214918
81,0.0
2,1, 1, 1, 0,18, 0.00,15.00,Thursday
119,474070.7707339163
168,6.139089236967266e-10
2,1, 1, 1, 0,18,15.00,30.00,Thursday
119,496528.9796437732
168,6.139089236967266e-10
2,1, 1, 1, 0,18,30.00,45.00,Thursday
119,517031.60665315049
168,5.115907697472721e-10
2,1, 1, 1, 0,18,45.00,60.00,Thursday
119,535570.0519618446
168,5.115907697472721e-10
2,1, 1, 1, 0,18, 0.00,60.00,Thursday
7,20.0
8,2023201.4089926845
81,0.0
2,1, 1, 1, 0,19, 0.00,15.00,Thursday
119,552909.9819257965
168,4.092726157978177e-10
2,1, 1, 1, 0,19,15.00,30.00,Thursday
119,570789.5195764243
168,6.139089236967266e-10
2,1, 1, 1, 0,19,30.00,45.00,Thursday
119,589986.5993657414
168,6.139089236967266e-10
2,1, 1, 1, 0,19,45.00,60.00,Thursday
119,610213.7403412062
168,7.16227077646181e-10
2,1, 1, 1, 0,19, 0.00,60.00,Thursday
7,20.000000000000005
8,2323899.841209168
81,0.0
2,1, 1, 1, 0,20, 0.00,15.00,Thursday
119,630703.4378306393
168,6.139089236967266e-10
2,1, 1, 1, 0,20,15.00,30.00,Thursday
119,650549.9977569656
168,7.16227077646181e-10
2,1, 1, 1, 0,20,30.00,45.00,Thursday
119,669045.670908915
168,7.16227077646181e-10
2,1, 1, 1, 0,20,45.00,60.00,Thursday
119,685853.6857552481
168,4.092726157978177e-10
2,1, 1, 1, 0,20, 0.00,60.00,Thursday
7,20.0
8,2636152.7922517687
81,0.0
2,1, 1, 1, 0,21, 0.00,15.00,Thursday
119,700817.319846204
168,4.092726157978177e-10
2,1, 1, 1, 0,21,15.00,30.00,Thursday
119,713763.9154868528
168,3.069544618483633e-10
2,1, 1, 1, 0,21,30.00,45.00,Thursday
119,724809.4124005267
168,3.069544618483633e-10
2,1, 1, 1, 0,21,45.00,60.00,Thursday
119,734125.030696976
168,3.069544618483633e-10
2,1, 1, 1, 0,21, 0.00,60.00,Thursday
7,19.999999999999998
8,2873515.6784305598
81,0.0
2,1, 1, 1, 0,22, 0.00,15.00,Thursday
119,742385.0070710636
168,4.092726157978177e-10
2,1, 1, 1, 0,22,15.00,30.00,Thursday
119,750588.4804041776
168,6.139089236967266e-10
2,1, 1, 1, 0,22,30.00,45.00,Thursday
119,759297.3458637545
168,4.092726157978177e-10
2,1, 1, 1, 0,22,45.00,60.00,Thursday
119,768774.2530684172
168,2.0463630789890886e-10
2,1, 1, 1, 0,22, 0.00,60.00,Thursday
7,20.0
8,3021045.0864074134
81,0.0
2,1, 1, 1, 0,23, 0.00,15.00,Thursday
119,778997.3652121942
168,2.0463630789890886e-10
2,1, 1, 1, 0,23,15.00,30.00,Thursday
119,789951.4535407126
168,3.069544618483633e-10
2,1, 1, 1, 0,23,30.00,45.00,Thursday
119,801116.4723695689
168,2.0463630789890886e-10
2,1, 1, 1, 0,23,45.00,60.00,Thursday
119,811978.4197943087
168,0.0
2,1, 1, 1, 0,23, 0.00,60.00,Thursday
7,20.0
8,3182043.7109167848
81,0.0
2,1, 1, 1, 0,24, 0.00,15.00,Thursday
119,823713.7400061742
168,0.0
2,1, 1, 1, 0,24,15.00,30.00,Thursday
119,840246.9434880278
168,0.0
2,1, 1, 1, 0,24,30.00,45.00,Thursday
119,863113.6887341669
168,0.0
2,1, 1, 1, 0,24,45.00,60.00,Thursday
119,891678.4176780888
168,1.0231815394945443e-10
2,1, 1, 1, 0,24, 0.00,60.00,Thursday
7,20.0
8,3418752.789906458
81,0.0
2,2, 1, 2, 0, 1, 0.00,15.00,Friday
119,923617.3620601394
168,4.092726157978177e-10
2,2, 1, 2, 0, 1,15.00,30.00,Friday
119,954510.1838728546
168,6.139089236967266e-10
2,2, 1, 2, 0, 1,30.00,45.00,Friday
119,982186.1910681304
168,4.092726157978177e-10
2,2, 1, 2, 0, 1,45.00,60.00,Friday
119,1006584.8181455209
168,8.185452315956354e-10
2,2, 1, 2, 0, 1, 0.00,60.00,Friday
7,20.0
8,3866898.5551466455
81,0.0
2,2, 1, 2, 0, 2, 0.00,15.00,Friday
119,1028442.261215711
168,4.092726157978177e-10
2,2, 1, 2, 0, 2,15.00,30.00,Friday
119,1048858.8516372166
168,8.185452315956354e-10
2,2, 1, 2, 0, 2,30.00,45.00,Friday
119,1068536.8812922566
168,6.139089236967266e-10
2,2, 1, 2, 0, 2,45.00,60.00,Friday
119,1087790.683994169
168,6.139089236967266e-10
2,2, 1, 2, 0, 2, 0.00,60.00,Friday
7,20.0
8,4233628.678139353
81,0.0
2,2, 1, 2, 0, 3, 0.00,15.00,Friday
119,1106755.491760798
168,4.092726157978177e-10
2,2, 1, 2, 0, 3,15.00,30.00,Friday
119,1125473.6697750814
168,2.0463630789890886e-10
2,2, 1, 2, 0, 3,30.00,45.00,Friday
119,1143969.0313733565
168,4.092726157978177e-10
2,2, 1, 2, 0, 3,45.00,60.00,Friday
119,1162254.564633493
168,1.0231815394945443e-9
2,2, 1, 2, 0, 3, 0.00,60.00,Friday
7,20.0
8,4538452.757542729
81,0.0
2,2, 1, 2, 0, 4, 0.00,15.00,Friday
119,1179928.9792611218
168,6.139089236967266e-10
2,2, 1, 2, 0, 4,15.00,30.00,Friday
119,1195848.8582937695
168,4.092726157978177e-10
2,2, 1, 2, 0, 4,30.00,45.00,Friday
119,1209586.2819323529
168,0.0
2,2, 1, 2, 0, 4,45.00,60.00,Friday
119,1221242.1608511157
168,0.0
2,2, 1, 2, 0, 4, 0.00,60.00,Friday
7,20.0
8,4806606.280338359
81,0.0
2,2, 1, 2, 0, 5, 0.00,15.00,Friday
119,1231638.795129656
168,0.0
2,2, 1, 2, 0, 5,15.00,30.00,Friday
119,1241922.5406315865
168,0.0
2,2, 1, 2, 0, 5,30.00,45.00,Friday
119,1252652.129465588
168,2.0463630789890886e-10
2,2, 1, 2, 0, 5,45.00,60.00,Friday
119,1264048.0363001852
168,4.092726157978177e-10
2,2, 1, 2, 0, 5, 0.00,60.00,Friday
7,20.000000000000005
8,4990261.501527015
81,0.0
2,2, 1, 2, 0, 6, 0.00,15.00,Friday
119,1275850.848086562
168,6.139089236967266e-10
2,2, 1, 2, 0, 6,15.00,30.00,Friday
119,1287791.5714275127
168,4.092726157978177e-10
2,2, 1, 2, 0, 6,30.00,45.00,Friday
119,1299742.9330321479
168,0.0
2,2, 1, 2, 0, 6,45.00,60.00,Friday
119,1311658.1771554773
168,0.0
2,2, 1, 2, 0, 6, 0.00,60.00,Friday
7,20.0
8,5175043.5297016999
81,0.0
2,2, 1, 2, 0, 7, 0.00,15.00,Friday
119,1323226.5696429434
168,0.0
2,2, 1, 2, 0, 7,15.00,30.00,Friday
119,1334141.0073465103
168,4.092726157978177e-10
2,2, 1, 2, 0, 7,30.00,45.00,Friday
119,1344238.3638594738
168,4.092726157978177e-10
2,2, 1, 2, 0, 7,45.00,60.00,Friday
119,1353559.6767985635
168,4.092726157978177e-10
2,2, 1, 2, 0, 7, 0.00,60.00,Friday
7,20.0
8,5355165.61764749
81,0.0
2,2, 1, 2, 0, 8, 0.00,15.00,Friday
119,1362014.3151674018
168,2.0463630789890886e-10
2,2, 1, 2, 0, 8,15.00,30.00,Friday
119,1369106.392020138
168,8.185452315956354e-10
2,2, 1, 2, 0, 8,30.00,45.00,Friday
119,1374666.6454788997
168,4.092726157978177e-10
2,2, 1, 2, 0, 8,45.00,60.00,Friday
119,1378849.7714107286
168,8.185452315956354e-10
2,2, 1, 2, 0, 8, 0.00,60.00,Friday
7,20.0
8,5484637.124077167
81,0.0
2,2, 1, 2, 0, 9, 0.00,15.00,Friday
119,1381993.761934177
168,4.092726157978177e-10
2,2, 1, 2, 0, 9,15.00,30.00,Friday
119,1385231.2030390835
168,4.092726157978177e-10
2,2, 1, 2, 0, 9,30.00,45.00,Friday
119,1388901.0978733879
168,4.092726157978177e-10
2,2, 1, 2, 0, 9,45.00,60.00,Friday
119,1393000.0391088385
168,4.092726157978177e-10
2,2, 1, 2, 0, 9, 0.00,60.00,Friday
7,20.0
8,5549126.101955486
81,0.0
2,2, 1, 2, 0,10, 0.00,15.00,Friday
119,1397169.5597968826
168,4.092726157978177e-10
2,2, 1, 2, 0,10,15.00,30.00,Friday
119,1400369.4443734245
168,4.092726157978177e-10
2,2, 1, 2, 0,10,30.00,45.00,Friday
119,1402387.1737830162
168,0.0
2,2, 1, 2, 0,10,45.00,60.00,Friday
119,1403442.6065226822
168,0.0
2,2, 1, 2, 0,10, 0.00,60.00,Friday
7,20.0
8,5603368.7844760059
81,0.0
2,2, 1, 2, 0,11, 0.00,15.00,Friday
119,1403789.2675380726
168,0.0
2,2, 1, 2, 0,11,15.00,30.00,Friday
119,1403396.792797705
168,4.092726157978177e-10
2,2, 1, 2, 0,11,30.00,45.00,Friday
119,1402543.0840427492
168,4.092726157978177e-10
2,2, 1, 2, 0,11,45.00,60.00,Friday
119,1401481.2703251902
168,6.139089236967266e-10
2,2, 1, 2, 0,11, 0.00,60.00,Friday
7,20.0
8,5611210.414703717
81,0.0
2,2, 1, 2, 0,12, 0.00,15.00,Friday
119,1401049.5408672079
168,4.092726157978177e-10
2,2, 1, 2, 0,12,15.00,30.00,Friday
119,1403420.0340096444
168,4.092726157978177e-10
2,2, 1, 2, 0,12,30.00,45.00,Friday
119,1409272.3341478145
168,8.185452315956354e-10
2,2, 1, 2, 0,12,45.00,60.00,Friday
119,1418015.5406594889
168,8.185452315956354e-10
2,2, 1, 2, 0,12, 0.00,60.00,Friday
7,20.0
8,5631757.449684154
81,0.0
2,2, 1, 2, 0,13, 0.00,15.00,Friday
119,1428757.9755996289
168,8.185452315956354e-10
2,2, 1, 2, 0,13,15.00,30.00,Friday
119,1440185.1389008645
168,6.139089236967266e-10
2,2, 1, 2, 0,13,30.00,45.00,Friday
119,1451507.0986233936
168,4.092726157978177e-10
2,2, 1, 2, 0,13,45.00,60.00,Friday
119,1462719.3999501065
168,8.185452315956354e-10
2,2, 1, 2, 0,13, 0.00,60.00,Friday
7,20.0
8,5783169.613073994
81,0.0
2,2, 1, 2, 0,14, 0.00,15.00,Friday
119,1473437.6028629984
168,6.139089236967266e-10
2,2, 1, 2, 0,14,15.00,30.00,Friday
119,1482511.489953052
168,8.185452315956354e-10
2,2, 1, 2, 0,14,30.00,45.00,Friday
119,1489539.3369165944
168,8.185452315956354e-10
2,2, 1, 2, 0,14,45.00,60.00,Friday
119,1494794.7722870373
168,8.185452315956354e-10
2,2, 1, 2, 0,14, 0.00,60.00,Friday
7,20.0
8,5940283.202019682
81,0.0
2,2, 1, 2, 0,15, 0.00,15.00,Friday
119,1498733.991682256
168,8.185452315956354e-10
2,2, 1, 2, 0,15,15.00,30.00,Friday
119,1501709.3259330644
168,6.139089236967266e-10
2,2, 1, 2, 0,15,30.00,45.00,Friday
119,1504184.9624831526
168,4.092726157978177e-10
2,2, 1, 2, 0,15,45.00,60.00,Friday
119,1506380.9690381922
168,6.139089236967266e-10
2,2, 1, 2, 0,15, 0.00,60.00,Friday
7,19.999999999999998
8,6011009.249136665
81,0.0
2,2, 1, 2, 0,16, 0.00,15.00,Friday
119,1508727.9782932732
168,4.092726157978177e-10
2,2, 1, 2, 0,16,15.00,30.00,Friday
119,1512436.830363538
168,4.092726157978177e-10
2,2, 1, 2, 0,16,30.00,45.00,Friday
119,1517803.5160278348
168,8.185452315956354e-10
2,2, 1, 2, 0,16,45.00,60.00,Friday
119,1524591.6316071712
168,1.0231815394945443e-9
2,2, 1, 2, 0,16, 0.00,60.00,Friday
7,20.0
8,6063559.956291817
81,0.0
2,2, 1, 2, 0,17, 0.00,15.00,Friday
119,1532631.1215840493
168,8.185452315956354e-10
2,2, 1, 2, 0,17,15.00,30.00,Friday
119,1542055.1188385967
168,4.092726157978177e-10
2,2, 1, 2, 0,17,30.00,45.00,Friday
119,1552756.1541569958
168,4.092726157978177e-10
2,2, 1, 2, 0,17,45.00,60.00,Friday
119,1564543.7710814679
168,4.092726157978177e-10
2,2, 1, 2, 0,17, 0.00,60.00,Friday
7,20.0
8,6191986.16566111
81,0.0
2,2, 1, 2, 0,18, 0.00,15.00,Friday
119,1576668.707813046
168,0.0
2,2, 1, 2, 0,18,15.00,30.00,Friday
119,1587994.5956917674
168,0.0
2,2, 1, 2, 0,18,30.00,45.00,Friday
119,1598295.5154077723
168,0.0
2,2, 1, 2, 0,18,45.00,60.00,Friday
119,1607698.551750031
168,0.0
2,2, 1, 2, 0,18, 0.00,60.00,Friday
7,20.0
8,6370657.370662616
81,0.0
2,2, 1, 2, 0,19, 0.00,15.00,Friday
119,1616137.9409327643
168,0.0
2,2, 1, 2, 0,19,15.00,30.00,Friday
119,1623098.450436872
168,0.0
2,2, 1, 2, 0,19,30.00,45.00,Friday
119,1628467.3290121828
168,0.0
2,2, 1, 2, 0,19,45.00,60.00,Friday
119,1632493.6873924493
168,0.0
2,2, 1, 2, 0,19, 0.00,60.00,Friday
7,20.0
8,6500197.407774268
81,0.0
2,2, 1, 2, 0,20, 0.00,15.00,Friday
119,1635491.7154479493
168,0.0
2,2, 1, 2, 0,20,15.00,30.00,Friday
119,1638235.4286722
168,0.0
2,2, 1, 2, 0,20,30.00,45.00,Friday
119,1641078.1273607542
168,0.0
2,2, 1, 2, 0,20,45.00,60.00,Friday
119,1644034.7408441967
168,0.0
2,2, 1, 2, 0,20, 0.00,60.00,Friday
7,20.0
8,6558840.0123251
81,0.0
2,2, 1, 2, 0,21, 0.00,15.00,Friday
119,1646992.5327556185
168,0.0
2,2, 1, 2, 0,21,15.00,30.00,Friday
119,1649735.6045283657
168,0.0
2,2, 1, 2, 0,21,30.00,45.00,Friday
119,1652144.162042659
168,0.0
2,2, 1, 2, 0,21,45.00,60.00,Friday
119,1654216.410996922
168,0.0
2,2, 1, 2, 0,21, 0.00,60.00,Friday
7,20.0
8,6603088.710323565
81,0.0
2,2, 1, 2, 0,22, 0.00,15.00,Friday
119,1656197.6269647689
168,0.0
2,2, 1, 2, 0,22,15.00,30.00,Friday
119,1658711.8937995015
168,0.0
2,2, 1, 2, 0,22,30.00,45.00,Friday
119,1662213.401029042
168,0.0
2,2, 1, 2, 0,22,45.00,60.00,Friday
119,1666528.7015569097
168,0.0
2,2, 1, 2, 0,22, 0.00,60.00,Friday
7,20.0
8,6643651.6233502239
81,0.0
2,2, 1, 2, 0,23, 0.00,15.00,Friday
119,1671417.2210894149
168,0.0
2,2, 1, 2, 0,23,15.00,30.00,Friday
119,1676622.712235848
168,0.0
2,2, 1, 2, 0,23,30.00,45.00,Friday
119,1681980.0527463689
168,0.0
2,2, 1, 2, 0,23,45.00,60.00,Friday
119,1687416.068947353
168,0.0
2,2, 1, 2, 0,23, 0.00,60.00,Friday
7,20.0
8,6717436.055018985
81,0.0
2,2, 1, 2, 0,24, 0.00,15.00,Friday
119,1692492.6239482163
168,0.0
2,2, 1, 2, 0,24,15.00,30.00,Friday
119,1695915.2044799778
168,0.0
2,2, 1, 2, 0,24,30.00,45.00,Friday
119,1697448.3890051873
168,0.0
2,2, 1, 2, 0,24,45.00,60.00,Friday
119,1697454.5915797589
168,0.0
2,2, 1, 2, 0,24, 0.00,60.00,Friday
7,20.0
8,6783310.8090131389
81,0.0
2,3, 1, 3, 0, 1, 0.00,15.00,Saturday
119,1696659.0716427533
168,0.0
2,3, 1, 3, 0, 1,15.00,30.00,Saturday
119,1695989.621018224
168,0.0
2,3, 1, 3, 0, 1,30.00,45.00,Saturday
119,1696164.561928998
168,0.0
2,3, 1, 3, 0, 1,45.00,60.00,Saturday
119,1697342.6892510502
168,0.0
2,3, 1, 3, 0, 1, 0.00,60.00,Saturday
7,20.0
8,6786155.943841027
81,0.0
2,3, 1, 3, 0, 2, 0.00,15.00,Saturday
119,1699045.373288497
168,4.092726157978177e-10
2,3, 1, 3, 0, 2,15.00,30.00,Saturday
119,1700109.5295488814
168,6.139089236967266e-10
2,3, 1, 3, 0, 2,30.00,45.00,Saturday
119,1699951.5198818329
168,1.2278178473934532e-9
2,3, 1, 3, 0, 2,45.00,60.00,Saturday
119,1698585.1876777479
168,8.185452315956354e-10
2,3, 1, 3, 0, 2, 0.00,60.00,Saturday
7,20.000000000000005
8,6797691.610396959
81,0.0
2,3, 1, 3, 0, 3, 0.00,15.00,Saturday
119,1696336.20065938
168,1.0231815394945443e-9
2,3, 1, 3, 0, 3,15.00,30.00,Saturday
119,1693773.901406216
168,1.2278178473934532e-9
2,3, 1, 3, 0, 3,30.00,45.00,Saturday
119,1691114.812492278
168,1.0231815394945443e-9
2,3, 1, 3, 0, 3,45.00,60.00,Saturday
119,1688547.0465954524
168,6.139089236967266e-10
2,3, 1, 3, 0, 3, 0.00,60.00,Saturday
7,20.0
8,6769771.961153327
81,0.0
2,3, 1, 3, 0, 4, 0.00,15.00,Saturday
119,1686287.32059876
168,6.139089236967266e-10
2,3, 1, 3, 0, 4,15.00,30.00,Saturday
119,1684976.6481540094
168,8.185452315956354e-10
2,3, 1, 3, 0, 4,30.00,45.00,Saturday
119,1684756.4942564869
168,1.0231815394945443e-9
2,3, 1, 3, 0, 4,45.00,60.00,Saturday
119,1685489.279316991
168,8.185452315956354e-10
2,3, 1, 3, 0, 4, 0.00,60.00,Saturday
7,20.0
8,6741509.742326247
81,0.0
2,3, 1, 3, 0, 5, 0.00,15.00,Saturday
119,1687196.4368323438
168,8.185452315956354e-10
2,3, 1, 3, 0, 5,15.00,30.00,Saturday
119,1690432.1162021277
168,1.432454155292362e-9
2,3, 1, 3, 0, 5,30.00,45.00,Saturday
119,1695164.4282635593
168,1.2278178473934532e-9
2,3, 1, 3, 0, 5,45.00,60.00,Saturday
119,1701082.8867606612
168,1.2278178473934532e-9
2,3, 1, 3, 0, 5, 0.00,60.00,Saturday
7,20.0
8,6773875.868058692
81,0.0
2,3, 1, 3, 0, 6, 0.00,15.00,Saturday
119,1707874.8783874447
168,4.092726157978177e-10
2,3, 1, 3, 0, 6,15.00,30.00,Saturday
119,1715302.2275165143
168,6.139089236967266e-10
2,3, 1, 3, 0, 6,30.00,45.00,Saturday
119,1723172.415370733
168,1.2278178473934532e-9
2,3, 1, 3, 0, 6,45.00,60.00,Saturday
119,1731325.5786156753
168,8.185452315956354e-10
2,3, 1, 3, 0, 6, 0.00,60.00,Saturday
7,20.0
8,6877675.099890367
81,0.0
2,3, 1, 3, 0, 7, 0.00,15.00,Saturday
119,1739346.3727478507
168,2.0463630789890886e-10
2,3, 1, 3, 0, 7,15.00,30.00,Saturday
119,1746320.0870842844
168,4.092726157978177e-10
2,3, 1, 3, 0, 7,30.00,45.00,Saturday
119,1751871.3199919856
168,2.0463630789890886e-10
2,3, 1, 3, 0, 7,45.00,60.00,Saturday
119,1756283.5071686302
168,0.0
2,3, 1, 3, 0, 7, 0.00,60.00,Saturday
7,20.0
8,6993821.286992751
81,0.0
2,3, 1, 3, 0, 8, 0.00,15.00,Saturday
119,1759713.5691875946
168,0.0
2,3, 1, 3, 0, 8,15.00,30.00,Saturday
119,1761379.7571476582
168,0.0
2,3, 1, 3, 0, 8,30.00,45.00,Saturday
119,1761141.9029961534
168,0.0
2,3, 1, 3, 0, 8,45.00,60.00,Saturday
119,1758584.6034143433
168,0.0
2,3, 1, 3, 0, 8, 0.00,60.00,Saturday
7,20.0
8,7040819.832745748
81,0.0
2,3, 1, 3, 0, 9, 0.00,15.00,Saturday
119,1754475.7230306497
168,4.092726157978177e-10
2,3, 1, 3, 0, 9,15.00,30.00,Saturday
119,1751263.2222963405
168,2.0463630789890886e-10
2,3, 1, 3, 0, 9,30.00,45.00,Saturday
119,1750047.7522811557
168,6.139089236967266e-10
2,3, 1, 3, 0, 9,45.00,60.00,Saturday
119,1750759.4235274762
168,4.092726157978177e-10
2,3, 1, 3, 0, 9, 0.00,60.00,Saturday
7,20.0
8,7006546.121135622
81,0.0
2,3, 1, 3, 0,10, 0.00,15.00,Saturday
119,1752672.6604653164
168,4.092726157978177e-10
2,3, 1, 3, 0,10,15.00,30.00,Saturday
119,1754862.7726300827
168,4.092726157978177e-10
2,3, 1, 3, 0,10,30.00,45.00,Saturday
119,1757055.1574876323
168,0.0
2,3, 1, 3, 0,10,45.00,60.00,Saturday
119,1758992.2200281758
168,0.0
2,3, 1, 3, 0,10, 0.00,60.00,Saturday
7,20.0
8,7023582.810611206
81,0.0
2,3, 1, 3, 0,11, 0.00,15.00,Saturday
119,1760951.735155447
168,0.0
2,3, 1, 3, 0,11,15.00,30.00,Saturday
119,1763969.9285347844
168,0.0
2,3, 1, 3, 0,11,30.00,45.00,Saturday
119,1767265.142005896
168,0.0
2,3, 1, 3, 0,11,45.00,60.00,Saturday
119,1767895.0270712595
168,0.0
2,3, 1, 3, 0,11, 0.00,60.00,Saturday
7,20.0
8,7060081.832767385
81,0.0
2,3, 1, 3, 0,12, 0.00,15.00,Saturday
119,1763647.196023401
168,0.0
2,3, 1, 3, 0,12,15.00,30.00,Saturday
119,1751907.5002460862
168,0.0
2,3, 1, 3, 0,12,30.00,45.00,Saturday
119,1733026.6545151785
168,6.139089236967266e-10
2,3, 1, 3, 0,12,45.00,60.00,Saturday
119,1710784.6491760764
168,2.0463630789890886e-10
2,3, 1, 3, 0,12, 0.00,60.00,Saturday
7,20.0
8,6959365.999960742
81,0.0
2,3, 1, 3, 0,13, 0.00,15.00,Saturday
119,1688208.5096538219
168,1.0231815394945443e-9
2,3, 1, 3, 0,13,15.00,30.00,Saturday
119,1667110.4564558948
168,6.139089236967266e-10
2,3, 1, 3, 0,13,30.00,45.00,Saturday
119,1648260.2746743037
168,4.092726157978177e-10
2,3, 1, 3, 0,13,45.00,60.00,Saturday
119,1632141.6731911386
168,6.139089236967266e-10
2,3, 1, 3, 0,13, 0.00,60.00,Saturday
7,20.0
8,6635720.913975159
81,0.0
2,3, 1, 3, 0,14, 0.00,15.00,Saturday
119,1619217.8946348727
168,8.185452315956354e-10
2,3, 1, 3, 0,14,15.00,30.00,Saturday
119,1610536.1773186099
168,4.092726157978177e-10
2,3, 1, 3, 0,14,30.00,45.00,Saturday
119,1605849.7297409387
168,1.0231815394945443e-9
2,3, 1, 3, 0,14,45.00,60.00,Saturday
119,1603327.7298549256
168,1.0231815394945443e-9
2,3, 1, 3, 0,14, 0.00,60.00,Saturday
7,20.0
8,6438931.531549346
81,0.0
2,3, 1, 3, 0,15, 0.00,15.00,Saturday
119,1602092.266727033
168,1.0231815394945443e-9
2,3, 1, 3, 0,15,15.00,30.00,Saturday
119,1601933.5936972625
168,4.092726157978177e-10
2,3, 1, 3, 0,15,30.00,45.00,Saturday
119,1602661.5611639105
168,6.139089236967266e-10
2,3, 1, 3, 0,15,45.00,60.00,Saturday
119,1603540.7719353382
168,6.139089236967266e-10
2,3, 1, 3, 0,15, 0.00,60.00,Saturday
7,20.0
8,6410228.193523545
81,0.0
2,3, 1, 3, 0,16, 0.00,15.00,Saturday
119,1604787.4757682884
168,4.092726157978177e-10
2,3, 1, 3, 0,16,15.00,30.00,Saturday
119,1608108.5099595208
168,8.185452315956354e-10
2,3, 1, 3, 0,16,30.00,45.00,Saturday
119,1614778.9378853804
168,6.139089236967266e-10
2,3, 1, 3, 0,16,45.00,60.00,Saturday
119,1625979.9442037969
168,6.139089236967266e-10
2,3, 1, 3, 0,16, 0.00,60.00,Saturday
7,20.000000000000005
8,6453654.867816986
81,0.0
2,3, 1, 3, 0,17, 0.00,15.00,Saturday
119,1641162.8559378633
168,6.139089236967266e-10
2,3, 1, 3, 0,17,15.00,30.00,Saturday
119,1658091.824676324
168,2.0463630789890886e-10
2,3, 1, 3, 0,17,30.00,45.00,Saturday
119,1675380.5736621954
168,4.092726157978177e-10
2,3, 1, 3, 0,17,45.00,60.00,Saturday
119,1691387.1722737877
168,0.0
2,3, 1, 3, 0,17, 0.00,60.00,Saturday
7,20.0
8,6666022.42655017
81,0.0
2,3, 1, 3, 0,18, 0.00,15.00,Saturday
119,1704540.641731405
168,0.0
2,3, 1, 3, 0,18,15.00,30.00,Saturday
119,1714909.3295066974
168,0.0
2,3, 1, 3, 0,18,30.00,45.00,Saturday
119,1723152.4645056006
168,0.0
2,3, 1, 3, 0,18,45.00,60.00,Saturday
119,1729742.4319644583
168,0.0
2,3, 1, 3, 0,18, 0.00,60.00,Saturday
7,20.0
8,6872344.86770816
81,0.0
2,3, 1, 3, 0,19, 0.00,15.00,Saturday
119,1735421.509014907
168,0.0
2,3, 1, 3, 0,19,15.00,30.00,Saturday
119,1741203.9840662522
168,0.0
2,3, 1, 3, 0,19,30.00,45.00,Saturday
119,1747595.5514334096
168,6.139089236967266e-10
2,3, 1, 3, 0,19,45.00,60.00,Saturday
119,1754644.0407696595
168,4.092726157978177e-10
2,3, 1, 3, 0,19, 0.00,60.00,Saturday
7,20.0
8,6978865.085284229
81,0.0
2,3, 1, 3, 0,20, 0.00,15.00,Saturday
119,1761929.02993891
168,4.092726157978177e-10
2,3, 1, 3, 0,20,15.00,30.00,Saturday
119,1768458.0903728954
168,6.139089236967266e-10
2,3, 1, 3, 0,20,30.00,45.00,Saturday
119,1773732.0566218284
168,2.0463630789890886e-10
2,3, 1, 3, 0,20,45.00,60.00,Saturday
119,1777775.4800559816
168,8.185452315956354e-10
2,3, 1, 3, 0,20, 0.00,60.00,Saturday
7,20.0
8,7081894.656989616
81,0.0
2,3, 1, 3, 0,21, 0.00,15.00,Saturday
119,1780645.663082269
168,4.092726157978177e-10
2,3, 1, 3, 0,21,15.00,30.00,Saturday
119,1781997.2979315909
168,4.092726157978177e-10
2,3, 1, 3, 0,21,30.00,45.00,Saturday
119,1781686.8107025545
168,6.139089236967266e-10
2,3, 1, 3, 0,21,45.00,60.00,Saturday
119,1779596.1094825762
168,4.092726157978177e-10
2,3, 1, 3, 0,21, 0.00,60.00,Saturday
7,20.0
8,7123925.88119899
81,0.0
2,3, 1, 3, 0,22, 0.00,15.00,Saturday
119,1776143.1129198627
168,2.0463630789890886e-10
2,3, 1, 3, 0,22,15.00,30.00,Saturday
119,1772392.1841728539
168,4.092726157978177e-10
2,3, 1, 3, 0,22,30.00,45.00,Saturday
119,1769000.6382096089
168,0.0
2,3, 1, 3, 0,22,45.00,60.00,Saturday
119,1766104.6091124805
168,0.0
2,3, 1, 3, 0,22, 0.00,60.00,Saturday
7,20.0
8,7083640.544414805
81,0.0
2,3, 1, 3, 0,23, 0.00,15.00,Saturday
119,1763749.2801707222
168,0.0
2,3, 1, 3, 0,23,15.00,30.00,Saturday
119,1762161.2849935399
168,0.0
2,3, 1, 3, 0,23,30.00,45.00,Saturday
119,1761240.9332367252
168,0.0
2,3, 1, 3, 0,23,45.00,60.00,Saturday
119,1760952.8552646463
168,4.092726157978177e-10
2,3, 1, 3, 0,23, 0.00,60.00,Saturday
7,20.0
8,7048104.353665635
81,0.0
2,3, 1, 3, 0,24, 0.00,15.00,Saturday
119,1761557.5874935613
168,6.139089236967266e-10
2,3, 1, 3, 0,24,15.00,30.00,Saturday
119,1763982.1701425629
168,8.185452315956354e-10
2,3, 1, 3, 0,24,30.00,45.00,Saturday
119,1768595.4718393367
168,2.0463630789890886e-10
2,3, 1, 3, 0,24,45.00,60.00,Saturday
119,1775041.5453253336
168,0.0
2,3, 1, 3, 0,24, 0.00,60.00,Saturday
7,20.0
8,7069176.774800794
81,0.0
2,4, 1, 4, 0, 1, 0.00,15.00,Sunday
119,1782899.0098931564
168,0.0
2,4, 1, 4, 0, 1,15.00,30.00,Sunday
119,1792174.1973871696
168,0.0
2,4, 1, 4, 0, 1,30.00,45.00,Sunday
119,1802745.527527293
168,0.0
2,4, 1, 4, 0, 1,45.00,60.00,Sunday
119,1814477.6718556937
168,6.139089236967266e-10
2,4, 1, 4, 0, 1, 0.00,60.00,Sunday
7,19.999999999999998
8,7192296.406663313
81,0.0
2,4, 1, 4, 0, 2, 0.00,15.00,Sunday
119,1826807.7948566706
168,2.0463630789890886e-10
2,4, 1, 4, 0, 2,15.00,30.00,Sunday
119,1839056.408556786
168,1.0231815394945443e-9
2,4, 1, 4, 0, 2,30.00,45.00,Sunday
119,1850893.4131489613
168,8.185452315956354e-10
2,4, 1, 4, 0, 2,45.00,60.00,Sunday
119,1862133.4259441724